<?xml version="1.0" encoding="UTF-8"?>

<!-- generated on 2025-05-02 07:46:34 by Eclipse SUMO sumo Version v1_20_0+1595-cc0a028dfbb
<sumoConfiguration xmlns:xsi="http://www.w3.org/2001/XMLSchema-instance" xsi:noNamespaceSchemaLocation="http://sumo.dlr.de/xsd/sumoConfiguration.xsd">

    <input>
        <net-file value="/home/narayan/Desktop/My Sumo/Stage 13(Homogeneous Network)/SUMO files/stage13.net.xml"/>
        <route-files value="/home/narayan/Desktop/My Sumo/Stage 13(Homogeneous Network)/SUMO files/stage13.rou.xml"/>
    </input>

    <output>
        <tripinfo-output value="/home/narayan/Desktop/My Sumo/Stage 13(Homogeneous Network)/SUMO files/tripinfo.xml"/>
    </output>

    <time>
        <begin value="0"/>
        <end value="10800"/>
    </time>

    <processing>
        <time-to-teleport value="-1"/>
    </processing>

    <traci_server>
        <remote-port value="55451"/>
    </traci_server>

</sumoConfiguration>
-->

<tripinfos xmlns:xsi="http://www.w3.org/2001/XMLSchema-instance" xsi:noNamespaceSchemaLocation="http://sumo.dlr.de/xsd/tripinfo_file.xsd">
    <tripinfo id="flow30_1.0" depart="1.00" departLane="E31_0" departPos="4.10" departSpeed="0.00" departDelay="0.00" arrival="128.00" arrivalLane="E10_0" arrivalPos="800.00" arrivalSpeed="13.99" duration="127.00" routeLength="1610.24" waitingTime="0.00" waitingCount="0" stopTime="0.00" timeLoss="11.26" rerouteNo="0" devices="tripinfo_flow30_1.0" vType="Car" speedFactor="1.01" vaporized=""/>
    <tripinfo id="flow32_3.0" depart="6.00" departLane="E31_0" departPos="4.10" departSpeed="0.00" departDelay="0.00" arrival="129.00" arrivalLane="E12_0" arrivalPos="800.00" arrivalSpeed="14.14" duration="123.00" routeLength="1610.44" waitingTime="0.00" waitingCount="0" stopTime="0.00" timeLoss="9.69" rerouteNo="0" devices="tripinfo_flow32_3.0" vType="Car" speedFactor="1.03" vaporized=""/>
    <tripinfo id="flow30_1.1" depart="13.00" departLane="E31_0" departPos="4.10" departSpeed="0.00" departDelay="0.00" arrival="132.00" arrivalLane="E10_0" arrivalPos="800.00" arrivalSpeed="15.08" duration="119.00" routeLength="1610.24" waitingTime="0.00" waitingCount="0" stopTime="0.00" timeLoss="11.93" rerouteNo="0" devices="tripinfo_flow30_1.1" vType="Car" speedFactor="1.09" vaporized=""/>
    <tripinfo id="flow24_2.0" depart="0.00" departLane="E21_0" departPos="4.10" departSpeed="0.00" departDelay="0.00" arrival="148.00" arrivalLane="E14_0" arrivalPos="800.00" arrivalSpeed="14.44" duration="148.00" routeLength="1610.23" waitingTime="18.00" waitingCount="1" stopTime="0.00" timeLoss="37.24" rerouteNo="0" devices="tripinfo_flow24_2.0" vType="Car" speedFactor="1.06" vaporized=""/>
    <tripinfo id="flow20_2.0" depart="4.00" departLane="E21_0" departPos="4.10" departSpeed="0.00" departDelay="3.00" arrival="156.00" arrivalLane="E10_0" arrivalPos="800.00" arrivalSpeed="12.80" duration="152.00" routeLength="1604.93" waitingTime="8.00" waitingCount="1" stopTime="0.00" timeLoss="27.74" rerouteNo="0" devices="tripinfo_flow20_2.0" vType="Car" speedFactor="0.94" vaporized=""/>
    <tripinfo id="flow20_2.1" depart="8.00" departLane="E21_0" departPos="4.10" departSpeed="0.00" departDelay="5.00" arrival="158.00" arrivalLane="E10_0" arrivalPos="800.00" arrivalSpeed="14.56" duration="150.00" routeLength="1604.93" waitingTime="8.00" waitingCount="1" stopTime="0.00" timeLoss="41.97" rerouteNo="0" devices="tripinfo_flow20_2.1" vType="Car" speedFactor="1.08" vaporized=""/>
    <tripinfo id="flow20_2.2" depart="16.00" departLane="E21_0" departPos="4.10" departSpeed="0.00" departDelay="0.00" arrival="159.00" arrivalLane="E10_0" arrivalPos="800.00" arrivalSpeed="14.55" duration="143.00" routeLength="1604.93" waitingTime="0.00" waitingCount="0" stopTime="0.00" timeLoss="39.18" rerouteNo="0" devices="tripinfo_flow20_2.2" vType="Car" speedFactor="1.12" vaporized=""/>
    <tripinfo id="flow24_2.1" depart="12.00" departLane="E21_0" departPos="4.10" departSpeed="0.00" departDelay="2.00" arrival="164.00" arrivalLane="E14_0" arrivalPos="800.00" arrivalSpeed="12.18" duration="152.00" routeLength="1610.23" waitingTime="0.00" waitingCount="0" stopTime="0.00" timeLoss="19.65" rerouteNo="0" devices="tripinfo_flow24_2.1" vType="Car" speedFactor="0.89" vaporized=""/>
    <tripinfo id="flow34_3.0" depart="17.00" departLane="E31_0" departPos="4.10" departSpeed="0.00" departDelay="2.00" arrival="189.00" arrivalLane="E14_0" arrivalPos="800.00" arrivalSpeed="13.88" duration="172.00" routeLength="1604.93" waitingTime="38.00" waitingCount="1" stopTime="0.00" timeLoss="58.74" rerouteNo="0" devices="tripinfo_flow34_3.0" vType="Car" speedFactor="1.03" vaporized=""/>
    <tripinfo id="flow30_1.2" depart="21.00" departLane="E31_0" departPos="4.10" departSpeed="0.00" departDelay="0.00" arrival="193.00" arrivalLane="E10_0" arrivalPos="800.00" arrivalSpeed="13.50" duration="172.00" routeLength="1610.24" waitingTime="34.00" waitingCount="1" stopTime="0.00" timeLoss="53.64" rerouteNo="0" devices="tripinfo_flow30_1.2" vType="Car" speedFactor="0.99" vaporized=""/>
    <tripinfo id="flow32_3.1" depart="38.00" departLane="E31_0" departPos="4.10" departSpeed="0.00" departDelay="3.00" arrival="195.00" arrivalLane="E12_0" arrivalPos="800.00" arrivalSpeed="13.79" duration="157.00" routeLength="1610.44" waitingTime="20.00" waitingCount="1" stopTime="0.00" timeLoss="42.55" rerouteNo="0" devices="tripinfo_flow32_3.1" vType="Car" speedFactor="1.02" vaporized=""/>
    <tripinfo id="flow34_3.1" depart="34.00" departLane="E31_0" departPos="4.10" departSpeed="0.00" departDelay="0.00" arrival="198.00" arrivalLane="E14_0" arrivalPos="800.00" arrivalSpeed="12.78" duration="164.00" routeLength="1604.93" waitingTime="21.00" waitingCount="1" stopTime="0.00" timeLoss="39.24" rerouteNo="0" devices="tripinfo_flow34_3.1" vType="Car" speedFactor="0.94" vaporized=""/>
    <tripinfo id="flow30_1.3" depart="42.00" departLane="E31_0" departPos="4.10" departSpeed="0.00" departDelay="5.00" arrival="199.00" arrivalLane="E10_0" arrivalPos="800.00" arrivalSpeed="13.47" duration="157.00" routeLength="1610.24" waitingTime="17.00" waitingCount="1" stopTime="0.00" timeLoss="37.16" rerouteNo="0" devices="tripinfo_flow30_1.3" vType="Car" speedFactor="0.97" vaporized=""/>
    <tripinfo id="flow03_2.0" depart="9.00" departLane="E01_0" departPos="4.10" departSpeed="0.00" departDelay="0.00" arrival="208.00" arrivalLane="E13_0" arrivalPos="800.00" arrivalSpeed="14.50" duration="199.00" routeLength="1605.16" waitingTime="69.00" waitingCount="1" stopTime="0.00" timeLoss="87.65" rerouteNo="0" devices="tripinfo_flow03_2.0" vType="Car" speedFactor="1.05" vaporized=""/>
    <tripinfo id="flow30_1.4" depart="46.00" departLane="E31_0" departPos="4.10" departSpeed="0.00" departDelay="4.00" arrival="209.00" arrivalLane="E10_0" arrivalPos="800.00" arrivalSpeed="11.84" duration="163.00" routeLength="1610.24" waitingTime="10.00" waitingCount="1" stopTime="0.00" timeLoss="28.56" rerouteNo="0" devices="tripinfo_flow30_1.4" vType="Car" speedFactor="0.87" vaporized=""/>
    <tripinfo id="flow20_2.3" depart="39.00" departLane="E21_0" departPos="4.10" departSpeed="0.00" departDelay="0.00" arrival="237.00" arrivalLane="E10_0" arrivalPos="800.00" arrivalSpeed="12.05" duration="198.00" routeLength="1604.93" waitingTime="50.00" waitingCount="1" stopTime="0.00" timeLoss="67.01" rerouteNo="0" devices="tripinfo_flow20_2.3" vType="Car" speedFactor="0.89" vaporized=""/>
    <tripinfo id="flow43_2.0" depart="11.00" departLane="E41_0" departPos="4.10" departSpeed="0.00" departDelay="0.00" arrival="256.00" arrivalLane="E13_0" arrivalPos="800.00" arrivalSpeed="12.80" duration="245.00" routeLength="1610.15" waitingTime="32.00" waitingCount="1" stopTime="0.00" timeLoss="120.04" rerouteNo="0" devices="tripinfo_flow43_2.0" vType="Car" speedFactor="0.94" vaporized=""/>
    <tripinfo id="flow43_2.1" depart="25.00" departLane="E41_0" departPos="4.10" departSpeed="0.00" departDelay="0.00" arrival="262.00" arrivalLane="E13_0" arrivalPos="800.00" arrivalSpeed="12.05" duration="237.00" routeLength="1610.15" waitingTime="32.00" waitingCount="1" stopTime="0.00" timeLoss="104.04" rerouteNo="0" devices="tripinfo_flow43_2.1" vType="Car" speedFactor="0.88" vaporized=""/>
    <tripinfo id="flow04_1.0" depart="13.00" departLane="E01_0" departPos="4.10" departSpeed="0.00" departDelay="0.00" arrival="300.00" arrivalLane="E14_0" arrivalPos="800.00" arrivalSpeed="5.73" duration="287.00" routeLength="1610.45" waitingTime="0.00" waitingCount="0" stopTime="0.00" timeLoss="18.31" rerouteNo="0" devices="tripinfo_flow04_1.0" vType="Truck" speedFactor="0.86" vaporized=""/>
    <tripinfo id="flow34_3.2" depart="61.00" departLane="E31_0" departPos="4.10" departSpeed="0.00" departDelay="0.00" arrival="302.00" arrivalLane="E14_0" arrivalPos="800.00" arrivalSpeed="7.15" duration="241.00" routeLength="1604.93" waitingTime="64.00" waitingCount="2" stopTime="0.00" timeLoss="139.98" rerouteNo="0" devices="tripinfo_flow34_3.2" vType="Car" speedFactor="1.18" vaporized=""/>
    <tripinfo id="flow34_3.3" depart="72.00" departLane="E31_0" departPos="4.10" departSpeed="0.00" departDelay="0.00" arrival="304.00" arrivalLane="E14_0" arrivalPos="800.00" arrivalSpeed="8.12" duration="232.00" routeLength="1604.93" waitingTime="60.00" waitingCount="1" stopTime="0.00" timeLoss="115.06" rerouteNo="0" devices="tripinfo_flow34_3.3" vType="Car" speedFactor="0.99" vaporized=""/>
    <tripinfo id="flow40_3.0" depart="6.00" departLane="E41_0" departPos="4.10" departSpeed="0.00" departDelay="0.00" arrival="329.00" arrivalLane="E10_0" arrivalPos="800.00" arrivalSpeed="5.60" duration="323.00" routeLength="1610.42" waitingTime="32.00" waitingCount="1" stopTime="0.00" timeLoss="53.96" rerouteNo="0" devices="tripinfo_flow40_3.0" vType="Truck" speedFactor="0.83" vaporized=""/>
    <tripinfo id="flow30_1.5" depart="57.00" departLane="E31_0" departPos="4.10" departSpeed="0.00" departDelay="0.00" arrival="331.00" arrivalLane="E10_0" arrivalPos="800.00" arrivalSpeed="7.59" duration="274.00" routeLength="1610.24" waitingTime="66.00" waitingCount="2" stopTime="0.00" timeLoss="148.42" rerouteNo="0" devices="tripinfo_flow30_1.5" vType="Car" speedFactor="0.93" vaporized=""/>
    <tripinfo id="flow30_1.6" depart="67.00" departLane="E31_0" departPos="4.10" departSpeed="0.00" departDelay="0.00" arrival="333.00" arrivalLane="E10_0" arrivalPos="800.00" arrivalSpeed="7.67" duration="266.00" routeLength="1610.24" waitingTime="63.00" waitingCount="2" stopTime="0.00" timeLoss="164.33" rerouteNo="0" devices="tripinfo_flow30_1.6" vType="Car" speedFactor="1.17" vaporized=""/>
    <tripinfo id="flow20_2.4" depart="55.00" departLane="E21_0" departPos="4.10" departSpeed="0.00" departDelay="0.00" arrival="335.00" arrivalLane="E10_0" arrivalPos="800.00" arrivalSpeed="8.52" duration="280.00" routeLength="1604.93" waitingTime="51.00" waitingCount="1" stopTime="0.00" timeLoss="176.85" rerouteNo="0" devices="tripinfo_flow20_2.4" vType="Car" speedFactor="1.13" vaporized=""/>
    <tripinfo id="flow20_2.5" depart="80.00" departLane="E21_0" departPos="4.10" departSpeed="0.00" departDelay="0.00" arrival="336.00" arrivalLane="E10_0" arrivalPos="800.00" arrivalSpeed="8.77" duration="256.00" routeLength="1604.93" waitingTime="50.00" waitingCount="1" stopTime="0.00" timeLoss="136.44" rerouteNo="0" devices="tripinfo_flow20_2.5" vType="Car" speedFactor="0.97" vaporized=""/>
    <tripinfo id="flow43_2.2" depart="93.00" departLane="E41_0" departPos="4.10" departSpeed="0.00" departDelay="0.00" arrival="336.00" arrivalLane="E13_0" arrivalPos="800.00" arrivalSpeed="12.98" duration="243.00" routeLength="1610.15" waitingTime="52.00" waitingCount="1" stopTime="0.00" timeLoss="120.23" rerouteNo="0" devices="tripinfo_flow43_2.2" vType="Car" speedFactor="0.96" vaporized=""/>
    <tripinfo id="flow42_3.0" depart="34.00" departLane="E41_0" departPos="4.10" departSpeed="0.00" departDelay="0.00" arrival="337.00" arrivalLane="E12_0" arrivalPos="800.00" arrivalSpeed="5.65" duration="303.00" routeLength="1605.14" waitingTime="11.00" waitingCount="1" stopTime="0.00" timeLoss="34.85" rerouteNo="0" devices="tripinfo_flow42_3.0" vType="Truck" speedFactor="1.16" vaporized=""/>
    <tripinfo id="flow20_2.6" depart="87.00" departLane="E21_0" departPos="4.10" departSpeed="0.00" departDelay="0.00" arrival="338.00" arrivalLane="E10_0" arrivalPos="800.00" arrivalSpeed="9.61" duration="251.00" routeLength="1604.93" waitingTime="51.00" waitingCount="1" stopTime="0.00" timeLoss="145.55" rerouteNo="0" devices="tripinfo_flow20_2.6" vType="Car" speedFactor="1.10" vaporized=""/>
    <tripinfo id="flow32_3.2" depart="76.00" departLane="E31_0" departPos="4.10" departSpeed="0.00" departDelay="3.00" arrival="339.00" arrivalLane="E12_0" arrivalPos="800.00" arrivalSpeed="7.28" duration="263.00" routeLength="1610.44" waitingTime="59.00" waitingCount="1" stopTime="0.00" timeLoss="148.96" rerouteNo="0" devices="tripinfo_flow32_3.2" vType="Car" speedFactor="1.02" vaporized=""/>
    <tripinfo id="flow20_2.7" depart="97.00" departLane="E21_0" departPos="4.10" departSpeed="0.00" departDelay="0.00" arrival="340.00" arrivalLane="E10_0" arrivalPos="800.00" arrivalSpeed="10.05" duration="243.00" routeLength="1604.93" waitingTime="50.00" waitingCount="1" stopTime="0.00" timeLoss="136.38" rerouteNo="0" devices="tripinfo_flow20_2.7" vType="Car" speedFactor="1.09" vaporized=""/>
    <tripinfo id="flow20_2.8" depart="101.00" departLane="E21_0" departPos="4.10" departSpeed="0.00" departDelay="3.00" arrival="342.00" arrivalLane="E10_0" arrivalPos="800.00" arrivalSpeed="10.60" duration="241.00" routeLength="1604.93" waitingTime="50.00" waitingCount="1" stopTime="0.00" timeLoss="128.58" rerouteNo="0" devices="tripinfo_flow20_2.8" vType="Car" speedFactor="1.04" vaporized=""/>
    <tripinfo id="flow40_2.0" depart="125.00" departLane="E41_0" departPos="4.10" departSpeed="0.00" departDelay="0.00" arrival="343.00" arrivalLane="E10_0" arrivalPos="800.00" arrivalSpeed="10.69" duration="218.00" routeLength="1610.42" waitingTime="52.00" waitingCount="1" stopTime="0.00" timeLoss="101.56" rerouteNo="0" devices="tripinfo_flow40_2.0" vType="Car" speedFactor="1.00" vaporized=""/>
    <tripinfo id="flow43_2.3" depart="115.00" departLane="E41_0" departPos="4.10" departSpeed="0.00" departDelay="0.00" arrival="345.00" arrivalLane="E13_0" arrivalPos="800.00" arrivalSpeed="11.76" duration="230.00" routeLength="1610.15" waitingTime="52.00" waitingCount="1" stopTime="0.00" timeLoss="92.27" rerouteNo="0" devices="tripinfo_flow43_2.3" vType="Car" speedFactor="0.85" vaporized=""/>
    <tripinfo id="flow43_2.4" depart="134.00" departLane="E41_0" departPos="4.10" departSpeed="0.00" departDelay="0.00" arrival="346.00" arrivalLane="E13_0" arrivalPos="800.00" arrivalSpeed="12.92" duration="212.00" routeLength="1610.15" waitingTime="52.00" waitingCount="1" stopTime="0.00" timeLoss="98.03" rerouteNo="0" devices="tripinfo_flow43_2.4" vType="Car" speedFactor="1.02" vaporized=""/>
    <tripinfo id="flow43_2.5" depart="152.00" departLane="E41_0" departPos="4.10" departSpeed="0.00" departDelay="0.00" arrival="348.00" arrivalLane="E13_0" arrivalPos="800.00" arrivalSpeed="13.25" duration="196.00" routeLength="1610.15" waitingTime="49.00" waitingCount="1" stopTime="0.00" timeLoss="75.27" rerouteNo="0" devices="tripinfo_flow43_2.5" vType="Car" speedFactor="0.97" vaporized=""/>
    <tripinfo id="flow30_1.7" depart="90.00" departLane="E31_0" departPos="4.10" departSpeed="0.00" departDelay="0.00" arrival="359.00" arrivalLane="E10_0" arrivalPos="800.00" arrivalSpeed="12.35" duration="269.00" routeLength="1610.24" waitingTime="54.00" waitingCount="1" stopTime="0.00" timeLoss="139.42" rerouteNo="0" devices="tripinfo_flow30_1.7" vType="Car" speedFactor="0.90" vaporized=""/>
    <tripinfo id="flow30_1.8" depart="116.00" departLane="E31_0" departPos="4.10" departSpeed="0.00" departDelay="0.00" arrival="365.00" arrivalLane="E10_0" arrivalPos="800.00" arrivalSpeed="11.83" duration="249.00" routeLength="1610.24" waitingTime="53.00" waitingCount="1" stopTime="0.00" timeLoss="111.92" rerouteNo="0" devices="tripinfo_flow30_1.8" vType="Car" speedFactor="0.85" vaporized=""/>
    <tripinfo id="flow30_1.9" depart="123.00" departLane="E31_0" departPos="4.10" departSpeed="0.00" departDelay="0.00" arrival="366.00" arrivalLane="E10_0" arrivalPos="800.00" arrivalSpeed="12.33" duration="243.00" routeLength="1610.24" waitingTime="52.00" waitingCount="1" stopTime="0.00" timeLoss="136.43" rerouteNo="0" devices="tripinfo_flow30_1.9" vType="Car" speedFactor="1.10" vaporized=""/>
    <tripinfo id="flow30_1.10" depart="138.00" departLane="E31_0" departPos="4.10" departSpeed="0.00" departDelay="0.00" arrival="368.00" arrivalLane="E10_0" arrivalPos="800.00" arrivalSpeed="13.39" duration="230.00" routeLength="1610.24" waitingTime="52.00" waitingCount="1" stopTime="0.00" timeLoss="125.07" rerouteNo="0" devices="tripinfo_flow30_1.10" vType="Car" speedFactor="1.12" vaporized=""/>
    <tripinfo id="flow02_2.0" depart="17.00" departLane="E01_0" departPos="4.10" departSpeed="0.00" departDelay="1.00" arrival="370.00" arrivalLane="E12_0" arrivalPos="800.00" arrivalSpeed="5.76" duration="353.00" routeLength="1610.20" waitingTime="63.00" waitingCount="1" stopTime="0.00" timeLoss="84.14" rerouteNo="0" devices="tripinfo_flow02_2.0" vType="Truck" speedFactor="1.05" vaporized=""/>
    <tripinfo id="flow04_1.1" depart="22.00" departLane="E01_0" departPos="4.10" departSpeed="0.00" departDelay="0.00" arrival="372.00" arrivalLane="E14_0" arrivalPos="800.00" arrivalSpeed="5.62" duration="350.00" routeLength="1610.45" waitingTime="58.00" waitingCount="1" stopTime="0.00" timeLoss="81.54" rerouteNo="0" devices="tripinfo_flow04_1.1" vType="Truck" speedFactor="0.93" vaporized=""/>
    <tripinfo id="flow02_2.1" depart="32.00" departLane="E01_0" departPos="4.10" departSpeed="0.00" departDelay="0.00" arrival="376.00" arrivalLane="E12_0" arrivalPos="800.00" arrivalSpeed="5.52" duration="344.00" routeLength="1610.20" waitingTime="51.00" waitingCount="1" stopTime="0.00" timeLoss="74.81" rerouteNo="0" devices="tripinfo_flow02_2.1" vType="Truck" speedFactor="0.94" vaporized=""/>
    <tripinfo id="flow03_2.1" depart="106.00" departLane="E01_0" departPos="4.10" departSpeed="0.00" departDelay="0.00" arrival="376.00" arrivalLane="E13_0" arrivalPos="800.00" arrivalSpeed="13.48" duration="270.00" routeLength="1605.16" waitingTime="86.00" waitingCount="2" stopTime="0.00" timeLoss="153.02" rerouteNo="0" devices="tripinfo_flow03_2.1" vType="Car" speedFactor="1.00" vaporized=""/>
    <tripinfo id="flow02_2.2" depart="36.00" departLane="E01_0" departPos="4.10" departSpeed="0.00" departDelay="0.00" arrival="378.00" arrivalLane="E12_0" arrivalPos="800.00" arrivalSpeed="5.82" duration="342.00" routeLength="1610.20" waitingTime="50.00" waitingCount="1" stopTime="0.00" timeLoss="73.26" rerouteNo="0" devices="tripinfo_flow02_2.2" vType="Truck" speedFactor="1.01" vaporized=""/>
    <tripinfo id="flow02_2.3" depart="40.00" departLane="E01_0" departPos="4.10" departSpeed="0.00" departDelay="0.00" arrival="381.00" arrivalLane="E12_0" arrivalPos="800.00" arrivalSpeed="5.83" duration="341.00" routeLength="1610.20" waitingTime="47.00" waitingCount="1" stopTime="0.00" timeLoss="71.74" rerouteNo="0" devices="tripinfo_flow02_2.3" vType="Truck" speedFactor="0.83" vaporized=""/>
    <tripinfo id="flow24_3.0" depart="46.00" departLane="E21_0" departPos="4.10" departSpeed="0.00" departDelay="0.00" arrival="389.00" arrivalLane="E14_0" arrivalPos="800.00" arrivalSpeed="5.98" duration="343.00" routeLength="1610.23" waitingTime="51.00" waitingCount="1" stopTime="0.00" timeLoss="74.23" rerouteNo="0" devices="tripinfo_flow24_3.0" vType="Truck" speedFactor="0.95" vaporized=""/>
    <tripinfo id="flow20_2.9" depart="105.00" departLane="E21_0" departPos="4.10" departSpeed="0.00" departDelay="5.00" arrival="389.00" arrivalLane="E10_0" arrivalPos="800.00" arrivalSpeed="14.44" duration="284.00" routeLength="1604.93" waitingTime="113.00" waitingCount="2" stopTime="0.00" timeLoss="171.81" rerouteNo="0" devices="tripinfo_flow20_2.9" vType="Car" speedFactor="1.04" vaporized=""/>
    <tripinfo id="flow20_2.10" depart="109.00" departLane="E21_0" departPos="4.10" departSpeed="0.00" departDelay="7.00" arrival="390.00" arrivalLane="E10_0" arrivalPos="800.00" arrivalSpeed="15.07" duration="281.00" routeLength="1604.93" waitingTime="113.00" waitingCount="2" stopTime="0.00" timeLoss="173.55" rerouteNo="0" devices="tripinfo_flow20_2.10" vType="Car" speedFactor="1.09" vaporized=""/>
    <tripinfo id="flow34_3.4" depart="127.00" departLane="E31_0" departPos="4.10" departSpeed="0.00" departDelay="0.00" arrival="391.00" arrivalLane="E14_0" arrivalPos="800.00" arrivalSpeed="7.68" duration="264.00" routeLength="1604.93" waitingTime="52.00" waitingCount="1" stopTime="0.00" timeLoss="134.11" rerouteNo="0" devices="tripinfo_flow34_3.4" vType="Car" speedFactor="0.90" vaporized=""/>
    <tripinfo id="flow20_2.11" depart="119.00" departLane="E21_0" departPos="4.10" departSpeed="0.00" departDelay="0.00" arrival="392.00" arrivalLane="E10_0" arrivalPos="800.00" arrivalSpeed="15.90" duration="273.00" routeLength="1604.93" waitingTime="112.00" waitingCount="2" stopTime="0.00" timeLoss="171.32" rerouteNo="0" devices="tripinfo_flow20_2.11" vType="Car" speedFactor="1.17" vaporized=""/>
    <tripinfo id="flow04_3.0" depart="45.00" departLane="E01_0" departPos="4.10" departSpeed="0.00" departDelay="0.00" arrival="393.00" arrivalLane="E14_0" arrivalPos="800.00" arrivalSpeed="8.20" duration="348.00" routeLength="1610.45" waitingTime="110.00" waitingCount="2" stopTime="0.00" timeLoss="221.25" rerouteNo="0" devices="tripinfo_flow04_3.0" vType="Car" speedFactor="0.92" vaporized=""/>
    <tripinfo id="flow20_2.12" depart="135.00" departLane="E21_0" departPos="4.10" departSpeed="0.00" departDelay="0.00" arrival="403.00" arrivalLane="E10_0" arrivalPos="800.00" arrivalSpeed="13.26" duration="268.00" routeLength="1604.93" waitingTime="57.00" waitingCount="1" stopTime="0.00" timeLoss="147.63" rerouteNo="0" devices="tripinfo_flow20_2.12" vType="Car" speedFactor="0.97" vaporized=""/>
    <tripinfo id="flow42_3.1" depart="66.00" departLane="E41_0" departPos="4.10" departSpeed="0.00" departDelay="0.00" arrival="410.00" arrivalLane="E12_0" arrivalPos="800.00" arrivalSpeed="5.46" duration="344.00" routeLength="1605.14" waitingTime="53.00" waitingCount="1" stopTime="0.00" timeLoss="75.86" rerouteNo="0" devices="tripinfo_flow42_3.1" vType="Truck" speedFactor="1.01" vaporized=""/>
    <tripinfo id="flow40_2.1" depart="179.00" departLane="E41_0" departPos="4.10" departSpeed="0.00" departDelay="0.00" arrival="414.00" arrivalLane="E10_0" arrivalPos="800.00" arrivalSpeed="14.29" duration="235.00" routeLength="1610.42" waitingTime="90.00" waitingCount="2" stopTime="0.00" timeLoss="122.51" rerouteNo="0" devices="tripinfo_flow40_2.1" vType="Car" speedFactor="1.03" vaporized=""/>
    <tripinfo id="flow32_1.0" depart="85.00" departLane="E31_0" departPos="4.10" departSpeed="0.00" departDelay="0.00" arrival="430.00" arrivalLane="E12_0" arrivalPos="800.00" arrivalSpeed="5.93" duration="345.00" routeLength="1610.44" waitingTime="54.00" waitingCount="1" stopTime="0.00" timeLoss="76.09" rerouteNo="0" devices="tripinfo_flow32_1.0" vType="Truck" speedFactor="1.18" vaporized=""/>
    <tripinfo id="flow30_1.11" depart="148.00" departLane="E31_0" departPos="4.10" departSpeed="0.00" departDelay="3.00" arrival="437.00" arrivalLane="E10_0" arrivalPos="800.00" arrivalSpeed="12.53" duration="289.00" routeLength="1610.24" waitingTime="112.00" waitingCount="2" stopTime="0.00" timeLoss="161.45" rerouteNo="0" devices="tripinfo_flow30_1.11" vType="Car" speedFactor="0.91" vaporized=""/>
    <tripinfo id="flow30_1.12" depart="156.00" departLane="E31_0" departPos="4.10" departSpeed="0.00" departDelay="7.00" arrival="439.00" arrivalLane="E10_0" arrivalPos="800.00" arrivalSpeed="13.90" duration="283.00" routeLength="1610.24" waitingTime="112.00" waitingCount="2" stopTime="0.00" timeLoss="168.48" rerouteNo="0" devices="tripinfo_flow30_1.12" vType="Car" speedFactor="1.02" vaporized=""/>
    <tripinfo id="flow02_2.4" depart="66.00" departLane="E01_0" departPos="4.10" departSpeed="0.00" departDelay="0.00" arrival="452.00" arrivalLane="E12_0" arrivalPos="800.00" arrivalSpeed="5.95" duration="386.00" routeLength="1610.20" waitingTime="88.00" waitingCount="2" stopTime="0.00" timeLoss="116.68" rerouteNo="0" devices="tripinfo_flow02_2.4" vType="Truck" speedFactor="1.15" vaporized=""/>
    <tripinfo id="flow02_1.0" depart="91.00" departLane="E01_0" departPos="4.10" departSpeed="0.00" departDelay="0.00" arrival="454.00" arrivalLane="E12_0" arrivalPos="800.00" arrivalSpeed="6.88" duration="363.00" routeLength="1610.20" waitingTime="87.00" waitingCount="2" stopTime="0.00" timeLoss="249.23" rerouteNo="0" devices="tripinfo_flow02_1.0" vType="Car" speedFactor="1.03" vaporized=""/>
    <tripinfo id="flow02_1.1" depart="115.00" departLane="E01_0" departPos="4.10" departSpeed="0.00" departDelay="0.00" arrival="456.00" arrivalLane="E12_0" arrivalPos="800.00" arrivalSpeed="7.64" duration="341.00" routeLength="1610.20" waitingTime="86.00" waitingCount="2" stopTime="0.00" timeLoss="211.00" rerouteNo="0" devices="tripinfo_flow02_1.1" vType="Car" speedFactor="0.90" vaporized=""/>
    <tripinfo id="flow42_2.0" depart="161.00" departLane="E41_0" departPos="4.10" departSpeed="0.00" departDelay="0.00" arrival="458.00" arrivalLane="E12_0" arrivalPos="800.00" arrivalSpeed="8.28" duration="297.00" routeLength="1605.14" waitingTime="102.00" waitingCount="2" stopTime="0.00" timeLoss="172.89" rerouteNo="0" devices="tripinfo_flow42_2.0" vType="Car" speedFactor="0.94" vaporized=""/>
    <tripinfo id="flow42_2.1" depart="169.00" departLane="E41_0" departPos="4.10" departSpeed="0.00" departDelay="2.00" arrival="459.00" arrivalLane="E12_0" arrivalPos="800.00" arrivalSpeed="8.42" duration="290.00" routeLength="1605.14" waitingTime="96.00" waitingCount="2" stopTime="0.00" timeLoss="168.13" rerouteNo="0" devices="tripinfo_flow42_2.1" vType="Car" speedFactor="0.96" vaporized=""/>
    <tripinfo id="flow04_1.2" depart="123.00" departLane="E01_0" departPos="4.10" departSpeed="0.00" departDelay="0.00" arrival="463.00" arrivalLane="E14_0" arrivalPos="800.00" arrivalSpeed="5.69" duration="340.00" routeLength="1610.45" waitingTime="47.00" waitingCount="1" stopTime="0.00" timeLoss="70.90" rerouteNo="0" devices="tripinfo_flow04_1.2" vType="Truck" speedFactor="1.02" vaporized=""/>
    <tripinfo id="flow24_2.2" depart="115.00" departLane="E21_0" departPos="4.10" departSpeed="0.00" departDelay="0.00" arrival="465.00" arrivalLane="E14_0" arrivalPos="800.00" arrivalSpeed="7.72" duration="350.00" routeLength="1610.23" waitingTime="112.00" waitingCount="2" stopTime="0.00" timeLoss="216.39" rerouteNo="0" devices="tripinfo_flow24_2.2" vType="Car" speedFactor="0.88" vaporized=""/>
    <tripinfo id="flow34_3.5" depart="144.00" departLane="E31_0" departPos="4.10" departSpeed="0.00" departDelay="0.00" arrival="467.00" arrivalLane="E14_0" arrivalPos="800.00" arrivalSpeed="7.91" duration="323.00" routeLength="1604.93" waitingTime="112.00" waitingCount="2" stopTime="0.00" timeLoss="194.41" rerouteNo="0" devices="tripinfo_flow34_3.5" vType="Car" speedFactor="0.91" vaporized=""/>
    <tripinfo id="flow34_3.6" depart="152.00" departLane="E31_0" departPos="4.10" departSpeed="0.00" departDelay="7.00" arrival="468.00" arrivalLane="E14_0" arrivalPos="800.00" arrivalSpeed="8.26" duration="316.00" routeLength="1604.93" waitingTime="111.00" waitingCount="2" stopTime="0.00" timeLoss="204.14" rerouteNo="0" devices="tripinfo_flow34_3.6" vType="Car" speedFactor="1.04" vaporized=""/>
    <tripinfo id="flow34_3.7" depart="230.00" departLane="E31_0" departPos="4.10" departSpeed="0.00" departDelay="0.00" arrival="470.00" arrivalLane="E14_0" arrivalPos="800.00" arrivalSpeed="9.09" duration="240.00" routeLength="1604.93" waitingTime="16.00" waitingCount="1" stopTime="0.00" timeLoss="133.43" rerouteNo="0" devices="tripinfo_flow34_3.7" vType="Car" speedFactor="1.09" vaporized=""/>
    <tripinfo id="flow04_3.1" depart="127.00" departLane="E01_0" departPos="4.10" departSpeed="0.00" departDelay="2.00" arrival="472.00" arrivalLane="E14_0" arrivalPos="800.00" arrivalSpeed="9.96" duration="345.00" routeLength="1610.45" waitingTime="107.00" waitingCount="2" stopTime="0.00" timeLoss="229.08" rerouteNo="0" devices="tripinfo_flow04_3.1" vType="Car" speedFactor="1.00" vaporized=""/>
    <tripinfo id="flow24_2.3" depart="141.00" departLane="E21_0" departPos="4.10" departSpeed="0.00" departDelay="0.00" arrival="475.00" arrivalLane="E14_0" arrivalPos="800.00" arrivalSpeed="12.98" duration="334.00" routeLength="1610.23" waitingTime="118.00" waitingCount="2" stopTime="0.00" timeLoss="208.99" rerouteNo="0" devices="tripinfo_flow24_2.3" vType="Car" speedFactor="0.94" vaporized=""/>
    <tripinfo id="flow24_2.4" depart="178.00" departLane="E21_0" departPos="4.10" departSpeed="0.00" departDelay="0.00" arrival="476.00" arrivalLane="E14_0" arrivalPos="800.00" arrivalSpeed="13.63" duration="298.00" routeLength="1610.23" waitingTime="116.00" waitingCount="2" stopTime="0.00" timeLoss="190.55" rerouteNo="0" devices="tripinfo_flow24_2.4" vType="Car" speedFactor="1.09" vaporized=""/>
    <tripinfo id="flow24_2.5" depart="184.00" departLane="E21_0" departPos="4.10" departSpeed="0.00" departDelay="0.00" arrival="478.00" arrivalLane="E14_0" arrivalPos="800.00" arrivalSpeed="14.05" duration="294.00" routeLength="1610.23" waitingTime="115.00" waitingCount="2" stopTime="0.00" timeLoss="178.71" rerouteNo="0" devices="tripinfo_flow24_2.5" vType="Car" speedFactor="1.02" vaporized=""/>